# MFI model

        4608  atoms
           0 bonds
           0 angles
           0 dihedrals
           0 impropers

           2  atom types

      0.000000000000      40.180000000000  xlo xhi
      0.000000000000      39.476002000000  ylo yhi
      0.000000000000      52.568001000000  zlo zhi
 
Masses

            1   15.99900000             # O
            2   28.08500000             # Si

Pair Coeffs

    1        0.060000        3.118146 # O O
    2        0.402000        3.82641 # Si Si

Atoms # atomic

         1  444    1   0     10.069108000000       1.379686269900       9.223055775450
         2  444    1   0      7.784875000000       1.466533474300      10.524113800200
         3  444    1   0      8.025955000000       2.696210936600       8.215064356275
         4  444    1   0      7.979748000000       0.067109203400       8.313629358150
         5  444    1   0      6.609610000000       0.759913038500      12.776652643050
         6  444    1   0      6.623673000000      18.859659955500      10.717301203875
         7  444    1   0      5.165139000000       1.308629466300      10.652905402650
         8  444    1   0      5.846190000000       2.558044929600       1.393052026500
         9  444    1   0      4.086306000000       0.898079045500       0.361405006875
        10  444    1   0      5.898424000000       0.019738001000       2.055408839100
        11  444    1   0      2.159675000000       2.496857126500       1.160438622075
        12  444    1   0      1.699614000000       0.730306037000      12.409990836075
        13  444    1   0      2.613709000000       1.541537878100      10.079914191750
        14  444    1   0      1.462552000000      18.926769158900      10.292814595800
        15  444    1   0      4.421809000000       2.591599531300       8.484475361400
        16  444    1   0      9.866199000000      16.872043254800       9.421499979225
        17  444    1   0      7.395129000000      16.404252631100      10.175850793575
        18  444    1   0      8.564367000000      14.803500750000       8.451620360775
        19  444    1   0      6.462953000000      16.996392661100      12.565066439025
        20  444    1   0      4.841690000000      16.939152458200      10.500458199750
        21  444    1   0      5.912487000000      14.803500750000       0.760921814475
        22  444    1   0      3.969784000000      16.408200231300       0.003942600075
        23  444    1   0      1.904532000000      14.803500750000       0.269411005125
        24  444    1   0      1.625281000000      17.112846867000      12.189205231875
        25  444    1   0      2.364593000000      16.520706837000       9.732965385150
        26  444    1   0      4.251044000000      14.803500750000       9.085064772825
        27  444    2   0      8.465926000000       1.403371871100       9.065351772450
        28  444    2   0      6.547331000000       0.663196833600      11.170700212500
        29  444    2   0      5.609128000000       1.057956853600       0.860801016375
        30  444    2   0      2.503214000000       1.014533251400       0.632130212025
        31  444    2   0      1.448489000000       0.710568036000      10.819808805825
        32  444    2   0      4.086306000000       1.356000668700       9.458297579925
        33  444    2   0      8.427755000000      16.331222027400       8.943131170125
        34  444    2   0      6.332368000000      17.300357876500      10.988026409025
        35  444    2   0      5.490597000000      16.339117227800       0.528308410050
        36  444    2   0      2.380665000000      16.341091027900       0.240498604575
        37  444    2   0      1.319913000000      17.357598079400      10.627935602175
        38  444    2   0      3.911523000000      16.358855228800       9.320306577300
        39  444    1   0     30.110892000000      38.096315730100      43.344945224550
        40  444    1   0     32.395125000000      38.009468525700      42.043887199800
        41  444    1   0     32.154045000000      36.779791063400      44.352936643725
        42  444    1   0     32.200252000000      39.408892796600      44.254371641850
        43  444    1   0     33.570390000000      38.716088961500      39.791348356950
        44  444    1   0     33.556327000000      20.616342044500      41.850699796125
        45  444    1   0     35.014861000000      38.167372533700      41.915095597350
        46  444    1   0     34.333810000000      36.917957070400      51.174948973500
        47  444    1   0     36.093694000000      38.577922954500      52.206595993125
        48  444    1   0     34.281576000000      39.456263999000      50.512592160900
        49  444    1   0     38.020325000000      36.979144873500      51.407562377925
        50  444    1   0     38.480386000000      38.745695963000      40.158010163925
        51  444    1   0     37.566291000000      37.934464121900      42.488086808250
        52  444    1   0     38.717448000000      20.549232841100      42.275186404200
        53  444    1   0     35.758191000000      36.884402468700      44.083525638600
        54  444    1   0     30.313801000000      22.603958745200      43.146501020775
        55  444    1   0     32.784871000000      23.071749368900      42.392150206425
        56  444    1   0     31.615633000000      24.672501250000      44.116380639225
        57  444    1   0     33.717047000000      22.479609338900      40.002934560975
        58  444    1   0     35.338310000000      22.536849541800      42.067542800250
        59  444    1   0     34.267513000000      24.672501250000      51.807079185525
        60  444    1   0     36.210216000000      23.067801768700      52.564058399925
        61  444    1   0     38.275468000000      24.672501250000      52.298589994875
        62  444    1   0     38.554719000000      22.363155133000      40.378795768125
        63  444    1   0     37.815407000000      22.955295163000      42.835035614850
        64  444    1   0     35.928956000000      24.672501250000      43.482936227175
        65  444    2   0     31.714074000000      38.072630128900      43.502649227550
        66  444    2   0     33.632669000000      38.812805166400      41.397300787500
        67  444    2   0     34.570872000000      38.418045146400      51.707199983625
        68  444    2   0     37.676786000000      38.461468748600      51.935870787975
        69  444    2   0     38.731511000000      38.765433964000      41.748192194175
        70  444    2   0     36.093694000000      38.120001331300      43.109703420075
        71  444    2   0     31.752245000000      23.144779972600      43.624869829875
        72  444    2   0     33.847632000000      22.175644123500      41.579974590975
        73  444    2   0     34.689403000000      23.136884772200      52.039692589950
        74  444    2   0     37.799335000000      23.134910972100      52.327502395425
        75  444    2   0     38.860087000000      22.118403920600      41.940065397825
        76  444    2   0     36.268477000000      23.117146771200      43.247694422700
        77  444    1   0     40.155892000000      38.096315730100      15.794055900450
        78  444    1   0      2.260125000000      38.009468525700      17.095113925200
        79  444    1   0      2.019045000000      36.779791063400      14.786064481275
        80  444    1   0      2.065252000000      39.408892796600      14.884629483150
        81  444    1   0      3.435390000000      38.716088961500      19.347652768050
        82  444    1   0      3.421327000000      20.616342044500      17.288301328875
        83  444    1   0      4.879861000000      38.167372533700      17.223905527650
        84  444    1   0      4.198810000000      36.917957070400       7.964052151500
        85  444    1   0      5.958694000000      38.577922954500       6.932405131875
        86  444    1   0      4.146576000000      39.456263999000       8.626408964100
        87  444    1   0      7.885325000000      36.979144873500       7.731438747075
        88  444    1   0      8.345386000000      38.745695963000      18.980990961075
        89  444    1   0      7.431291000000      37.934464121900      16.650914316750
        90  444    1   0      8.582448000000      20.549232841100      16.863814720800
        91  444    1   0      5.623191000000      36.884402468700      15.055475486400
        92  444    1   0      0.178801000000      22.603958745200      15.992500104225
        93  444    1   0      2.649871000000      23.071749368900      16.746850918575
        94  444    1   0      1.480633000000      24.672501250000      15.022620485775
        95  444    1   0      3.582047000000      22.479609338900      19.136066564025
        96  444    1   0      5.203310000000      22.536849541800      17.071458324750
        97  444    1   0      4.132513000000      24.672501250000       7.331921939475
        98  444    1   0      6.075216000000      23.067801768700       6.574942725075
        99  444    1   0      8.140468000000      24.672501250000       6.840411130125
       100  444    1   0      8.419719000000      22.363155133000      18.760205356875
       101  444    1   0      7.680407000000      22.955295163000      16.303965510150
       102  444    1   0      5.793956000000      24.672501250000      15.656064897825
       103  444    2   0      1.579074000000      38.072630128900      15.636351897450
       104  444    2   0      3.497669000000      38.812805166400      17.741700337500
       105  444    2   0      4.435872000000      38.418045146400       7.431801141375
       106  444    2   0      7.541786000000      38.461468748600       7.203130337025
       107  444    2   0      8.596511000000      38.765433964000      17.390808930825
       108  444    2   0      5.958694000000      38.120001331300      16.029297704925
       109  444    2   0      1.617245000000      23.144779972600      15.514131295125
       110  444    2   0      3.712632000000      22.175644123500      17.559026534025
       111  444    2   0      4.554403000000      23.136884772200       7.099308535050
       112  444    2   0      7.664335000000      23.134910972100       6.811498729575
       113  444    2   0      8.725087000000      22.118403920600      17.198935727175
       114  444    2   0      6.133477000000      23.117146771200      15.891306702300
       115  444    1   0     20.114108000000       1.379686269900      49.915945349550
       116  444    1   0     17.829875000000       1.466533474300      48.614887324800
       117  444    1   0     18.070955000000       2.696210936600      50.923936768725
       118  444    1   0     18.024748000000       0.067109203400      50.825371766850
       119  444    1   0     16.654610000000       0.759913038500      46.362348481950
       120  444    1   0     16.668673000000      18.859659955500      48.421699921125
       121  444    1   0     15.210139000000       1.308629466300      48.486095722350
       122  444    1   0     15.891190000000       2.558044929600       5.177948098500
       123  444    1   0     14.131306000000       0.898079045500       6.209595118125
       124  444    1   0     15.943424000000       0.019738001000       4.515591285900
       125  444    1   0     12.204675000000       2.496857126500       5.410561502925
       126  444    1   0     11.744614000000       0.730306037000      46.729010288925
       127  444    1   0     12.658709000000       1.541537878100      49.059086933250
       128  444    1   0     11.507552000000      18.926769158900      48.846186529200
       129  444    1   0     14.466809000000       2.591599531300      50.654525763600
       130  444    1   0     19.911199000000      16.872043254800      49.717501145775
       131  444    1   0     17.440129000000      16.404252631100      48.963150331425
       132  444    1   0     18.609367000000      14.803500750000      50.687380764225
       133  444    1   0     16.507953000000      16.996392661100      46.573934685975
       134  444    1   0     14.886690000000      16.939152458200      48.638542925250
       135  444    1   0     15.957487000000      14.803500750000       5.810078310525
       136  444    1   0     14.014784000000      16.408200231300       6.567057524925
       137  444    1   0     11.949532000000      14.803500750000       6.301589119875
       138  444    1   0     11.670281000000      17.112846867000      46.949795893125
       139  444    1   0     12.409593000000      16.520706837000      49.406035739850
       140  444    1   0     14.296044000000      14.803500750000      50.053936352175
       141  444    2   0     18.510926000000       1.403371871100      50.073649352550
       142  444    2   0     16.592331000000       0.663196833600      47.968300912500
       143  444    2   0     15.654128000000       1.057956853600       5.710199108625
       144  444    2   0     12.548214000000       1.014533251400       5.938869912975
       145  444    2   0     11.493489000000       0.710568036000      48.319192319175
       146  444    2   0     14.131306000000       1.356000668700      49.680703545075
       147  444    2   0     18.472755000000      16.331222027400      50.195869954875
       148  444    2   0     16.377368000000      17.300357876500      48.150974715975
       149  444    2   0     15.535597000000      16.339117227800       6.042691714950
       150  444    2   0     12.425665000000      16.341091027900       6.330501520425
       151  444    2   0     11.364913000000      17.357598079400      48.511065522825
       152  444    2   0     13.956523000000      16.358855228800      49.818694547700
       153  444    1   0     10.020892000000      38.096315730100      43.344945224550
       154  444    1   0     12.305125000000      38.009468525700      42.043887199800
       155  444    1   0     12.064045000000      36.779791063400      44.352936643725
       156  444    1   0     12.110252000000      39.408892796600      44.254371641850
       157  444    1   0     13.480390000000      38.716088961500      39.791348356950
       158  444    1   0     13.466327000000      20.616342044500      41.850699796125
       159  444    1   0     14.924861000000      38.167372533700      41.915095597350
       160  444    1   0     14.243810000000      36.917957070400      51.174948973500
       161  444    1   0     16.003694000000      38.577922954500      52.206595993125
       162  444    1   0     14.191576000000      39.456263999000      50.512592160900
       163  444    1   0     17.930325000000      36.979144873500      51.407562377925
       164  444    1   0     18.390386000000      38.745695963000      40.158010163925
       165  444    1   0     17.476291000000      37.934464121900      42.488086808250
       166  444    1   0     18.627448000000      20.549232841100      42.275186404200
       167  444    1   0     15.668191000000      36.884402468700      44.083525638600
       168  444    1   0     10.223801000000      22.603958745200      43.146501020775
       169  444    1   0     12.694871000000      23.071749368900      42.392150206425
       170  444    1   0     11.525633000000      24.672501250000      44.116380639225
       171  444    1   0     13.627047000000      22.479609338900      40.002934560975
       172  444    1   0     15.248310000000      22.536849541800      42.067542800250
       173  444    1   0     14.177513000000      24.672501250000      51.807079185525
       174  444    1   0     16.120216000000      23.067801768700      52.564058399925
       175  444    1   0     18.185468000000      24.672501250000      52.298589994875
       176  444    1   0     18.464719000000      22.363155133000      40.378795768125
       177  444    1   0     17.725407000000      22.955295163000      42.835035614850
       178  444    1   0     15.838956000000      24.672501250000      43.482936227175
       179  444    2   0     11.624074000000      38.072630128900      43.502649227550
       180  444    2   0     13.542669000000      38.812805166400      41.397300787500
       181  444    2   0     14.480872000000      38.418045146400      51.707199983625
       182  444    2   0     17.586786000000      38.461468748600      51.935870787975
       183  444    2   0     18.641511000000      38.765433964000      41.748192194175
       184  444    2   0     16.003694000000      38.120001331300      43.109703420075
       185  444    2   0     11.662245000000      23.144779972600      43.624869829875
       186  444    2   0     13.757632000000      22.175644123500      41.579974590975
       187  444    2   0     14.599403000000      23.136884772200      52.039692589950
       188  444    2   0     17.709335000000      23.134910972100      52.327502395425
       189  444    2   0     18.770087000000      22.118403920600      41.940065397825
       190  444    2   0     16.178477000000      23.117146771200      43.247694422700
       191  444    1   0     30.159108000000       1.379686269900       9.223055775450
       192  444    1   0     27.874875000000       1.466533474300      10.524113800200
       193  444    1   0     28.115955000000       2.696210936600       8.215064356275
       194  444    1   0     28.069748000000       0.067109203400       8.313629358150
       195  444    1   0     26.699610000000       0.759913038500      12.776652643050
       196  444    1   0     26.713673000000      18.859659955500      10.717301203875
       197  444    1   0     25.255139000000       1.308629466300      10.652905402650
       198  444    1   0     25.936190000000       2.558044929600       1.393052026500
       199  444    1   0     24.176306000000       0.898079045500       0.361405006875
       200  444    1   0     25.988424000000       0.019738001000       2.055408839100
       201  444    1   0     22.249675000000       2.496857126500       1.160438622075
       202  444    1   0     21.789614000000       0.730306037000      12.409990836075
       203  444    1   0     22.703709000000       1.541537878100      10.079914191750
       204  444    1   0     21.552552000000      18.926769158900      10.292814595800
       205  444    1   0     24.511809000000       2.591599531300       8.484475361400
       206  444    1   0     29.956199000000      16.872043254800       9.421499979225
       207  444    1   0     27.485129000000      16.404252631100      10.175850793575
       208  444    1   0     28.654367000000      14.803500750000       8.451620360775
       209  444    1   0     26.552953000000      16.996392661100      12.565066439025
       210  444    1   0     24.931690000000      16.939152458200      10.500458199750
       211  444    1   0     26.002487000000      14.803500750000       0.760921814475
       212  444    1   0     24.059784000000      16.408200231300       0.003942600075
       213  444    1   0     21.994532000000      14.803500750000       0.269411005125
       214  444    1   0     21.715281000000      17.112846867000      12.189205231875
       215  444    1   0     22.454593000000      16.520706837000       9.732965385150
       216  444    1   0     24.341044000000      14.803500750000       9.085064772825
       217  444    2   0     28.555926000000       1.403371871100       9.065351772450
       218  444    2   0     26.637331000000       0.663196833600      11.170700212500
       219  444    2   0     25.699128000000       1.057956853600       0.860801016375
       220  444    2   0     22.593214000000       1.014533251400       0.632130212025
       221  444    2   0     21.538489000000       0.710568036000      10.819808805825
       222  444    2   0     24.176306000000       1.356000668700       9.458297579925
       223  444    2   0     28.517755000000      16.331222027400       8.943131170125
       224  444    2   0     26.422368000000      17.300357876500      10.988026409025
       225  444    2   0     25.580597000000      16.339117227800       0.528308410050
       226  444    2   0     22.470665000000      16.341091027900       0.240498604575
       227  444    2   0     21.409913000000      17.357598079400      10.627935602175
       228  444    2   0     24.001523000000      16.358855228800       9.320306577300
       229  444    1   0     30.110892000000      11.248686769900      43.344945224550
       230  444    1   0     32.395125000000      11.335533974300      42.043887199800
       231  444    1   0     32.154045000000      12.565211436600      44.352936643725
       232  444    1   0     32.200252000000       9.936109703400      44.254371641850
       233  444    1   0     33.570390000000      10.628913538500      39.791348356950
       234  444    1   0     33.556327000000      28.728660455500      41.850699796125
       235  444    1   0     35.014861000000      11.177629966300      41.915095597350
       236  444    1   0     34.333810000000      12.427045429600      51.174948973500
       237  444    1   0     36.093694000000      10.767079545500      52.206595993125
       238  444    1   0     34.281576000000       9.888738501000      50.512592160900
       239  444    1   0     38.020325000000      12.365857626500      51.407562377925
       240  444    1   0     38.480386000000      10.599306537000      40.158010163925
       241  444    1   0     37.566291000000      11.410538378100      42.488086808250
       242  444    1   0     38.717448000000      28.795769658900      42.275186404200
       243  444    1   0     35.758191000000      12.460600031300      44.083525638600
       244  444    1   0     30.313801000000      26.741043754800      43.146501020775
       245  444    1   0     32.784871000000      26.273253131100      42.392150206425
       246  444    1   0     33.717047000000      26.865393161100      40.002934560975
       247  444    1   0     35.338310000000      26.808152958200      42.067542800250
       248  444    1   0     36.210216000000      26.277200731300      52.564058399925
       249  444    1   0     38.554719000000      26.981847367000      40.378795768125
       250  444    1   0     37.815407000000      26.389707337000      42.835035614850
       251  444    2   0     31.714074000000      11.272372371100      43.502649227550
       252  444    2   0     33.632669000000      10.532197333600      41.397300787500
       253  444    2   0     34.570872000000      10.926957353600      51.707199983625
       254  444    2   0     37.676786000000      10.883533751400      51.935870787975
       255  444    2   0     38.731511000000      10.579568536000      41.748192194175
       256  444    2   0     36.093694000000      11.225001168700      43.109703420075
       257  444    2   0     31.752245000000      26.200222527400      43.624869829875
       258  444    2   0     33.847632000000      27.169358376500      41.579974590975
       259  444    2   0     34.689403000000      26.208117727800      52.039692589950
       260  444    2   0     37.799335000000      26.210091527900      52.327502395425
       261  444    2   0     38.860087000000      27.226598579400      41.940065397825
       262  444    2   0     36.268477000000      26.227855728800      43.247694422700
       263  444    1   0     10.069108000000       8.489314230100       9.223055775450
       264  444    1   0      7.784875000000       8.402467025700      10.524113800200
       265  444    1   0      8.025955000000       7.172789563400       8.215064356275
       266  444    1   0      7.979748000000       9.801891296600       8.313629358150
       267  444    1   0      6.609610000000       9.109087461500      12.776652643050
       268  444    1   0      6.623673000000      30.485342544500      10.717301203875
       269  444    1   0      5.165139000000       8.560371033700      10.652905402650
       270  444    1   0      5.846190000000       7.310955570400       1.393052026500
       271  444    1   0      4.086306000000       8.970921454500       0.361405006875
       272  444    1   0      5.898424000000       9.849262499000       2.055408839100
       273  444    1   0      2.159675000000       7.372143373500       1.160438622075
       274  444    1   0      1.699614000000       9.138694463000      12.409990836075
       275  444    1   0      2.613709000000       8.327462621900      10.079914191750
       276  444    1   0      1.462552000000      30.418233341100      10.292814595800
       277  444    1   0      4.421809000000       7.277400968700       8.484475361400
       278  444    1   0      9.866199000000      32.472959245200       9.421499979225
       279  444    1   0      7.395129000000      32.940749868900      10.175850793575
       280  444    1   0      8.564367000000      34.541501750000       8.451620360775
       281  444    1   0      6.462953000000      32.348609838900      12.565066439025
       282  444    1   0      4.841690000000      32.405850041800      10.500458199750
       283  444    1   0      5.912487000000      34.541501750000       0.760921814475
       284  444    1   0      3.969784000000      32.936802268700       0.003942600075
       285  444    1   0      1.904532000000      34.541501750000       0.269411005125
       286  444    1   0      1.625281000000      32.232155633000      12.189205231875
       287  444    1   0      2.364593000000      32.824295663000       9.732965385150
       288  444    1   0      4.251044000000      34.541501750000       9.085064772825
       289  444    2   0      8.465926000000       8.465628628900       9.065351772450
       290  444    2   0      6.547331000000       9.205803666400      11.170700212500
       291  444    2   0      5.609128000000       8.811043646400       0.860801016375
       292  444    2   0      2.503214000000       8.854467248600       0.632130212025
       293  444    2   0      1.448489000000       9.158432464000      10.819808805825
       294  444    2   0      4.086306000000       8.512999831300       9.458297579925
       295  444    2   0      8.427755000000      33.013780472600       8.943131170125
       296  444    2   0      6.332368000000      32.044644623500      10.988026409025
       297  444    2   0      5.490597000000      33.005885272200       0.528308410050
       298  444    2   0      2.380665000000      33.003911472100       0.240498604575
       299  444    2   0      1.319913000000      31.987404420600      10.627935602175
       300  444    2   0      3.911523000000      32.986147271200       9.320306577300
       301  444    1   0      0.024108000000       8.489314230100      36.773945099550
       302  444    1   0     37.919875000000       8.402467025700      35.472887074800
       303  444    1   0     38.160955000000       7.172789563400      37.781936518725
       304  444    1   0     38.114748000000       9.801891296600      37.683371516850
       305  444    1   0     36.744610000000       9.109087461500      33.220348231950
       306  444    1   0     36.758673000000      30.485342544500      35.279699671125
       307  444    1   0     35.300139000000       8.560371033700      35.344095472350
       308  444    1   0     35.981190000000       7.310955570400      44.603948848500
       309  444    1   0     34.221306000000       8.970921454500      45.635595868125
       310  444    1   0     36.033424000000       9.849262499000      43.941592035900
       311  444    1   0     32.294675000000       7.372143373500      44.836562252925
       312  444    1   0     31.834614000000       9.138694463000      33.587010038925
       313  444    1   0     32.748709000000       8.327462621900      35.917086683250
       314  444    1   0     31.597552000000      30.418233341100      35.704186279200
       315  444    1   0     34.556809000000       7.277400968700      37.512525513600
       316  444    1   0     40.001199000000      32.472959245200      36.575500895775
       317  444    1   0     37.530129000000      32.940749868900      35.821150081425
       318  444    1   0     38.699367000000      34.541501750000      37.545380514225
       319  444    1   0     36.597953000000      32.348609838900      33.431934435975
       320  444    1   0     34.976690000000      32.405850041800      35.496542675250
       321  444    1   0     36.047487000000      34.541501750000      45.236079060525
       322  444    1   0     34.104784000000      32.936802268700      45.993058274925
       323  444    1   0     32.039532000000      34.541501750000      45.727589869875
       324  444    1   0     31.760281000000      32.232155633000      33.807795643125
       325  444    1   0     32.499593000000      32.824295663000      36.264035489850
       326  444    1   0     34.386044000000      34.541501750000      36.911936102175
       327  444    2   0     38.600926000000       8.465628628900      36.931649102550
       328  444    2   0     36.682331000000       9.205803666400      34.826300662500
       329  444    2   0     35.744128000000       8.811043646400      45.136199858625
       330  444    2   0     32.638214000000       8.854467248600      45.364870662975
       331  444    2   0     31.583489000000       9.158432464000      35.177192069175
       332  444    2   0     34.221306000000       8.512999831300      36.538703295075
       333  444    2   0     38.562755000000      33.013780472600      37.053869704875
       334  444    2   0     36.467368000000      32.044644623500      35.008974465975